[ Backbone_fit ]
   1    5   18   20   22   32   34   36   42   44   46   53   55   57   68 
  70   72   88   90   92  112  114  116  136  138  140  160  162  164  167 
 169  171  189  191  193  204  206  208  221  223  225  237  239  241  249 
 251  253  270  272  274  287  289  291  297  299  301  311  313  315  332 
 334  336  349  351  353  364  366  368  371  373  375  390  392  394  405 
 407  409  412  414  416  436  438  440  453  455  457  469  471  473  490 
 492  496  504  506  508  516  518  520  532  534  536  547  549  553  561 
 563  565  568  570  572  589  591  593  608  610  612  632  634  638  646 
 648  650  665  667  669  684  686  690  698  700  702  708  710  712  718 
 720  722  728  730  734  742  744  746  759  761  763  774  776  780  788 
 790  792  800  802  804  814  816  818  834  836  838  849  851  853  861 
 863  865  880  882  884  899  901  903  913  915  917  925  927  929  941 
 943  945  956  958  960  978  980  982  997  999 1001 1016 1018 1020 1033 
1035 1039 1047 1049 1051 1054 1056 1058 1070 1072 1074 1084 1086 1088 1101 
1103 1105 1125 1127 1129 1142 1144 1146 1153 1155 1159 1167 1169 1171 1188 
1190 1192 1208 1210 1212 1228 1230 1232 1238 1240 1242 1259 1261 1263 1279 
1281 1285 1293 1295 1297 1307 1309 1311 1317 1319 1321 1328 1330 1332 1339 
1341 1343 1360 1362 1366 1374 1376 1378 1384 1386 1388 1401 1403 1405 1420 
1422 1424 1430 1432 1434 1442 1444 1446 1459 1461 1463 1478 1480 1482 1489 
1491 1493 1496 1498 1500 1506 1508 1510 1525 1527 1529 1532 1534 1536 1543 
1545 1547 1562 1564 1566 1569 1571 1573 1589 1591 1593 1600 1602 1604 1624 
1626 1628 1634 1636 1638 1644 1646 1648 1655 1657 1661 1669 1671 1673 1679 
1681 1683 1690 1692 1694 1704 1706 1708 1719 1721 1723 1738 1740 1742 1753 
1755 1757 1767 1769 1771 1783 1785 1787 1800 1802 1804 1817 1819 1821 1829 
1831 1833 1853 1855 1857 1872 1874 1876 1879 1881 1883 1901 1903 1905 1918 
1920 1922 1937 1939 1941 1952 1954 1956 1971 1973 1977 1985 1987 1989 2007 
2009 2011 2017 2019 2021 2037 2039 2041 2056 2058 2060 2070 2072 2074 2085 
2087 2089 2107 2109 2111 2117 2119 2121 2124 2126 2128 2139 2141 2143 2146 
2148 2150 2153 2155 2157 2160 2162 2164 2176 2178 2180 2195 2197 2199 2212 
2214 2216 2219 2221 2223 2230 2232 2234 2240 2242 2244 2251 2253 2255 2266 
2268 2270 2276 2278 2280 2290 2292 2294 2309 2311 2313 2325 2327 2329 2335 
2337 2339 2354 2356 2358 2373 2375 2377 2383 2385 2387 2393 2395 2397 2417 
2419 2421 2431 2433 2435 2453 2455 2457 2469 2471 2473 2488 2490 2492 2505 
2507 2509 2529 2531 2533 2548 2550 2552 2565 2567 2569 2575 2577 2579 2585 
2587 2589 2596 2598 2602 2610 2612 2614 2625 2627 2629 2644 2646 2648 2658 
2660 2662 2675 2677 2679 2685 2687 2689 2695 2697 2699 2714 2716 2718 2731 
2733 2735 2746 2748 2750 2768 2770 2772 2787 2789 2791 2803 2805 2807 2813 
2815 2817 2834 2836 2838 2845 2847 2849 2856 2858 2860 2868 2870 2872 2885 
2887 2889 2895 2897 2899 2912 2914 2916 2923 2925 2927 2934 2936 2938 2950 
2952 2954 2965 2967 2969 2989 2991 2993 2999 3001 3003 3006 3008 3010 3025 
3027 3029 3044 3046 3048 3051 3053 3055 3058 3060 3062 3074 3076 3078 3096 
3098 3100 3115 3117 3119 3137 3139 3141 3147 3149 3151 3166 3168 3172 3180 
3182 3184 3191 3193 3195 3203 3205 3207 3210 3212 3214 3224 3226 3228 3244 
3246 3248 3254 3256 3258 3271 3273 3275 3295 3297 3299 3305 3307 3309 3316 
3318 3320 3326 3328 3330 3345 3347 3349 3362 3364 3366 3377 3379 3381 3387 
3389 3391 3406 3408 3410 3421 3423 3425 3445 3447 3449 3457 3459 3461 3479 
3481 3483 3489 3491 3493 3499 3501 3503 3506 3508 3510 3525 3527 3529 3544 
3546 3550 3558 3560 3562 3578 3580 3582 3598 3600 3602 3615 3617 3619 3631 
3633 3635 3641 3643 3645 3655 3657 3659 3674 3676 3678 3681 3683 3685 3695 
3697 3699 3709 3711 3713 3723 3725 3727 3734 3736 3738 3745 3747 3749 3756 
3758 3760 3776 3778 3780 3788 3790 3792 3802 3804 3806 3821 3823 3825 3840 
3842 3844 3855 3857 3859 3871 3873 3875 3878 3880 3884 3892 3894 3896 3911 
3913 3915 3922 3924 3926 3936 3938 3940 3958 3960 3962 3973 3975 3977 3985 
3987 3989 4004 4006 4008 4028 4030 4032 4047 4049 4051 4064 4066 4068 4080 
4082 4084 4092 4094 4096 4102 4104 4106 4112 4114 4116 4133 4135 4137 4143 
4145 4147 4150 4152 4154 4161 4163 4165 4171 4173 4175 4191 4193 4195 4210 
4212 4214 4221 4223 4227 4235 4237 4239 4250 4252 4254 4270 4272 4274 4294 
4296 4298 4311 4313 4315 4330 4332 4334 4349 4351 4353 4363 4365 4367 4370 
4372 4374 4386 4388 4390 4401 4403 4405 4421 4423 4425 4431 4433 4435 4443 
4445 4447 4454 4456 4458 4474 4476 4478 4488 4490 4492 4508 4510 4512 4522 
4524 4528 4536 4538 4540 4553 4577 4579 4599 4601 4603 4618 4620 4622 4637 
4639 4641 4653 4655 4657 4667 4669 4671 4687 4689 4691 4699 4701 4703 4710 
4712 4714 4721 4723 4725 4731 4733 4735 4748 4750 4752 4772 4774 4776 4788 
4790 4792 4810 4812 4814 4832 4834 4836 4856 4858 4860 4870 4872 4874 4882 
4884 4886 4901 4903 4905 4915 4917 4919 4922 4924 4926 4932 4934 4936 4952 
4954 4956 4976 4978 4980 4995 4997 4999 5007 5009 5013 5021 5023 5025 5035 
5037 5039 5056 5058 5060 5075 5077 5079 5097 5099 5101 5114 5116 5118 5125 
5127 5129 5142 5144 5146 5159 5161 5163 5171 5173 5175 5182 5184 5186 5189 
5191 5193 5208 5210 5212 5227 5229 5231 5241 5243 5245 5253 5255 5257 5274 
5276 5278 5298 5300 5302 5315 5317 5319 5339 5341 5343 5356 5358 5360 5375 
5377 5381 5389 5391 5393 5408 5410 5412 5415 5417 5419 5439 5441 5443 5463 
5465 5467 5483 5485 5487 5507 5509 5511 5518 5520 5522 5537 5539 5541 5559 
5561 5563 5576 5578 5580 5600 5602 5604 5620 5622 5624 5636 5638 5640 5656 
5658 5660 5680 5682 5684 5697 5699 5701 5718 5720 5722 5725 5727 5729 5741 
5743 5745 5763 5765 5767 5770 5772 5774 5789 5791 5793 5806 5808 5810 5816 
5818 5820 5837 5839 5841 5856 5858 5860 5880 5882 5884 5902 5904 5906 5919 
5921 5923 5935 5937 5939 5952 5954 5956 5971 5973 5975 5982 5984 5986 5999 
6001 6003 6014 6016 6018 6034 6036 6038 6049 6051 6053 6060 6062 6064 6079 
6081 6083 6095 6097 6099 6119 6121 6123 6136 6138 6140 6148 6150 6154 6162 
6164 6166 6186 6188 6190 6206 6208 6210 6221 6223 6225 6240 6242 6244 6251 
6253 6255 6267 6269 6271 6282 6284 6286 6298 6300 6302 6317 6319 6321 6336 
6338 6340 6343 6345 6347 6362 6364 6366 6378 6380 6382 6389 6391 6393 6409 
6411 6413 6433 6435 6437 6452 6454 6456 6474 6476 6478 6481 6483 6485 6492 
6494 6496 6506 6508 6510 6528 6530 6532 6544 6546 6548 6558 6560 6562 6573 
6575 6577 6583 6585 6587 6602 6604 6606 6621 6623 6625 6638 6640 6642 6662 
6664 6666 6681 6683 6685 6695 6697 6699 6706 6708 6710 6716 6718 6720 6738 
6740 6742 6760 6762 6764 6779 6781 6783 6796 6798 6800 6815 6817 6819 6831 
6833 6837 6845 6847 6849 6856 6858 6860 6873 6875 6877 6892 6894 6896 6916 
6918 6920 6928 6930 6932 6950 6952 6954 6970 6972 6974 6986 6988 6990 7005 
7007 7009 7029 7031 7033 7049 7051 7053 7059 7061 7063 7078 7080 7082 7089 
7091 7093 7100 7102 7104 7124 7126 7128 7138 7140 7142 7154 7156 7158 7169 
7171 7173 7180 7182 7184 7190 7192 7194 7207 7209 7211 7223 7225 7227 7240 
7242 7244 7264 7266 7268 7274 7276 7278 7298 7300 7302 7313 7315 7317 7330 
7332 7334 7349 7351 7353 7371 7373 7375 7386 7388 7390 7405 7407 7409 7415 
7417 7419 7425 7427 7429 7437 7439 7441 7453 7455 7457 7472 7474 7476 7496 
7498 7500 7506 7508 7510 7521 7523 7525 7545 7547 7549 7560 7563 7567 7580 
7582 7584 7594 7596 7598 7604 7606 7608 7615 7617 7619 7630 7632 7634 7650 
7652 7654 7674 7676 7678 7698 7700 7702 7722 7724 7726 7729 7731 7733 7751 
7753 7755 7766 7768 7770 7783 7785 7787 7799 7801 7803 7811 7813 7815 7832 
7834 7836 7849 7851 7853 7859 7861 7863 7873 7875 7877 7894 7896 7898 7911 
7913 7915 7926 7928 7930 7933 7935 7937 7952 7954 7956 7967 7969 7971 7974 
7976 7978 7998 8000 8002 8015 8017 8019 8031 8033 8035 8052 8054 8058 8066 
8068 8070 8078 8080 8082 8094 8096 8098 8109 8111 8115 8123 8125 8127 8130 
8132 8134 8151 8153 8155 8170 8172 8174 8194 8196 8200 8208 8210 8212 8227 
8229 8231 8246 8248 8252 8260 8262 8264 8270 8272 8274 8280 8282 8284 8290 
8292 8296 8304 8306 8308 8321 8323 8325 8336 8338 8342 8350 8352 8354 8362 
8364 8366 8376 8378 8380 8396 8398 8400 8411 8413 8415 8423 8425 8427 8442 
8444 8446 8461 8463 8465 8475 8477 8479 8487 8489 8491 8503 8505 8507 8518 
8520 8522 8540 8542 8544 8559 8561 8563 8578 8580 8582 8595 8597 8601 8609 
8611 8613 8616 8618 8620 8632 8634 8636 8646 8648 8650 8663 8665 8667 8687 
8689 8691 8704 8706 8708 8715 8717 8721 8729 8731 8733 8750 8752 8754 8770 
8772 8774 8790 8792 8794 8800 8802 8804 8821 8823 8825 8841 8843 8847 8855 
8857 8859 8869 8871 8873 8879 8881 8883 8890 8892 8894 8901 8903 8905 8922 
8924 8928 8936 8938 8940 8946 8948 8950 8963 8965 8967 8982 8984 8986 8992 
8994 8996 9004 9006 9008 9021 9023 9025 9040 9042 9044 9051 9053 9055 9058 
9060 9062 9068 9070 9072 9087 9089 9091 9094 9096 9098 9105 9107 9109 9124 
9126 9128 9131 9133 9135 9151 9153 9155 9162 9164 9166 9186 9188 9190 9196 
9198 9200 9206 9208 9210 9217 9219 9223 9231 9233 9235 9241 9243 9245 9252 
9254 9256 9266 9268 9270 9281 9283 9285 9300 9302 9304 9315 9317 9319 9329 
9331 9333 9345 9347 9349 9362 9364 9366 9379 9381 9383 9391 9393 9395 9415 
9417 9419 9434 9436 9438 9441 9443 9445 9463 9465 9467 9480 9482 9484 9499 
9501 9503 9514 9516 9518 9533 9535 9539 9547 9549 9551 9569 9571 9573 9579 
9581 9583 9599 9601 9603 9618 9620 9622 9632 9634 9636 9647 9649 9651 9669 
9671 9673 9679 9681 9683 9686 9688 9690 9701 9703 9705 9708 9710 9712 9715 
9717 9719 9722 9724 9726 9738 9740 9742 9757 9759 9761 9774 9776 9778 9781 
9783 9785 9792 9794 9796 9802 9804 9806 9813 9815 9817 9828 9830 9832 9838 
9840 9842 9852 9854 9856 9871 9873 9875 9887 9889 9891 9897 9899 9901 9916 
9918 9920 9935 9937 9939 9945 9947 9949 9955 9957 9959 9979 9981 9983 9993 
9995 9997 10015 10017 10019 10031 10033 10035 10050 10052 10054 10067 10069 10071 10091 
10093 10095 10110 10112 10114 10127 10129 10131 10137 10139 10141 10147 10149 10151 10158 
10160 10164 10172 10174 10176 10187 10189 10191 10206 10208 10210 10220 10222 10224 10237 
10239 10241 10247 10249 10251 10257 10259 10261 10276 10278 10280 10293 10295 10297 10308 
10310 10312 10330 10332 10334 10349 10351 10353 10365 10367 10369 10375 10377 10379 10396 
10398 10400 10407 10409 10411 10418 10420 10422 10430 10432 10434 10447 10449 10451 10457 
10459 10461 10474 10476 10478 10485 10487 10489 10496 10498 10500 10512 10514 10516 10527 
10529 10531 10551 10553 10555 10561 10563 10565 10568 10570 10572 10587 10589 10591 10606 
10608 10610 10613 10615 10617 10620 10622 10624 10636 10638 10640 10658 10660 10662 10677 
10679 10681 10699 10701 10703 10709 10711 10713 10728 10730 10734 10742 10744 10746 10753 
10755 10757 10765 10767 10769 10772 10774 10776 10786 10788 10790 10806 10808 10810 10816 
10818 10820 10833 10835 10837 10857 10859 10861 10867 10869 10871 10878 10880 10882 10888 
10890 10892 10907 10909 10911 10924 10926 10928 10939 10941 10943 10949 10951 10953 10968 
10970 10972 10983 10985 10987 11007 11009 11011 11019 11021 11023 11041 11043 11045 11051 
11053 11055 11061 11063 11065 11068 11070 11072 11087 11089 11091 11106 11108 11112 11120 
11122 11124 11140 11142 11144 11160 11162 11164 11177 11179 11181 11193 11195 11197 11203 
11205 11207 11217 11219 11221 11236 11238 11240 11243 11245 11247 11257 11259 11261 11271 
11273 11275 11285 11287 11289 11296 11298 11300 11307 11309 11311 11318 11320 11322 11338 
11340 11342 11350 11352 11354 11364 11366 11368 11383 11385 11387 11402 11404 11406 11417 
11419 11421 11433 11435 11437 11440 11442 11446 11454 11456 11458 11473 11475 11477 11484 
11486 11488 11498 11500 11502 11520 11522 11524 11535 11537 11539 11547 11549 11551 11566 
11568 11570 11590 11592 11594 11609 11611 11613 11626 11628 11630 11642 11644 11646 11654 
11656 11658 11664 11666 11668 11674 11676 11678 11695 11697 11699 11705 11707 11709 11712 
11714 11716 11723 11725 11727 11733 11735 11737 11753 11755 11757 11772 11774 11776 11783 
11785 11789 11797 11799 11801 11812 11814 11816 11832 11834 11836 11856 11858 11860 11873 
11875 11877 11892 11894 11896 11911 11913 11915 11925 11927 11929 11932 11934 11936 11948 
11950 11952 11963 11965 11967 11983 11985 11987 11993 11995 11997 12005 12007 12009 12016 
12018 12020 12036 12038 12040 12050 12052 12054 12070 12072 12074 12084 12086 12090 12098 
12100 12102 12115 12139 12141 12161 12163 12165 12180 12182 12184 12199 12201 12203 12215 
12217 12219 12229 12231 12233 12249 12251 12253 12261 12263 12265 12272 12274 12276 12283 
12285 12287 12293 12295 12297 12310 12312 12314 12334 12336 12338 12350 12352 12354 12372 
12374 12376 12394 12396 12398 12418 12420 12422 12432 12434 12436 12444 12446 12448 12463 
12465 12467 12477 12479 12481 12484 12486 12488 12494 12496 12498 12514 12516 12518 12538 
12540 12542 12557 12559 12561 12569 12571 12575 12583 12585 12587 12597 12599 12601 12618 
12620 12622 12637 12639 12641 12659 12661 12663 12676 12678 12680 12687 12689 12691 12704 
12706 12708 12721 12723 12725 12733 12735 12737 12744 12746 12748 12751 12753 12755 12770 
12772 12774 12789 12791 12793 12803 12805 12807 12815 12817 12819 12836 12838 12840 12860 
12862 12864 12877 12879 12881 12901 12903 12905 12918 12920 12922 12937 12939 12943 12951 
12953 12955 12970 12972 12974 12977 12979 12981 13001 13003 13005 13025 13027 13029 13045 
13047 13049 13069 13071 13073 13080 13082 13084 13099 13101 13103 13121 13123 13125 13138 
13140 13142 13162 13164 13166 13182 13184 13186 13198 13200 13202 13218 13220 13222 13242 
13244 13246 13259 13261 13263 13280 13282 13284 13287 13289 13291 13303 13305 13307 13325 
13327 13329 13332 13334 13336 13351 13353 13355 13368 13370 13372 13378 13380 13382 13399 
13401 13403 13418 13420 13422 13442 13444 13446 13464 13466 13468 13481 13483 13485 13497 
13499 13501 13514 13516 13518 13533 13535 13537 13544 13546 13548 13561 13563 13565 13576 
13578 13580 13596 13598 13600 13611 13613 13615 13622 13624 13626 13641 13643 13645 13657 
13659 13661 13681 13683 13685 13698 13700 13702 13710 13712 13716 13724 13726 13728 13748 
13750 13752 13768 13770 13772 13783 13785 13787 13802 13804 13806 13813 13815 13817 13829 
13831 13833 13844 13846 13848 13860 13862 13864 13879 13881 13883 13898 13900 13902 13905 
13907 13909 13924 13926 13928 13940 13942 13944 13951 13953 13955 13971 13973 13975 13995 
13997 13999 14014 14016 14018 14036 14038 14040 14043 14045 14047 14054 14056 14058 14068 
14070 14072 14090 14092 14094 14106 14108 14110 14120 14122 14124 14135 14137 14139 14145 
14147 14149 14164 14166 14168 14183 14185 14187 14200 14202 14204 14224 14226 14228 14243 
14245 14247 14257 14259 14261 14268 14270 14272 14278 14280 14282 14300 14302 14304 14322 
14324 14326 14341 14343 14345 14358 14360 14362 14377 14379 14381 14393 14395 14399 14407 
14409 14411 14418 14420 14422 14435 14437 14439 14454 14456 14458 14478 14480 14482 14490 
14492 14494 14512 14514 14516 14532 14534 14536 14548 14550 14552 14567 14569 14571 14591 
14593 14595 14611 14613 14615 14621 14623 14625 14640 14642 14644 14651 14653 14655 14662 
14664 14666 14686 14688 14690 14700 14702 14704 14716 14718 14720 14731 14733 14735 14742 
14744 14746 14752 14754 14756 14769 14771 14773 14785 14787 14789 14802 14804 14806 14826 
14828 14830 14836 14838 14840 14860 14862 14864 14875 14877 14879 14892 14894 14896 14911 
14913 14915 14933 14935 14937 14948 14950 14952 14967 14969 14971 14977 14979 14981 14987 
14989 14991 14999 15001 15003 15015 15017 15019 15034 15036 15038 15058 15060 15062 15068 
15070 15072 15083 15085 15087 15107 15109 15111 15122 

[ ChainA_backbone ]
   1    5   18   20   22   32   34   36   42   44   46   53   55   57   68 
  70   72   88   90   92  112  114  116  136  138  140  160  162  164  167 
 169  171  189  191  193  204  206  208  221  223  225  237  239  241  249 
 251  253  270  272  274  287  289  291  297  299  301  311  313  315  332 
 334  336  349  351  353  364  366  368  371  373  375  390  392  394  405 
 407  409  412  414  416  436  438  440  453  455  457  469  471  473  490 
 492  496  504  506  508  516  518  520  532  534  536  547  549  553  561 
 563  565  568  570  572  589  591  593  608  610  612  632  634  638  646 
 648  650  665  667  669  684  686  690  698  700  702  708  710  712  718 
 720  722  728  730  734  742  744  746  759  761  763  774  776  780  788 
 790  792  800  802  804  814  816  818  834  836  838  849  851  853  861 
 863  865  880  882  884  899  901  903  913  915  917  925  927  929  941 
 943  945  956  958  960  978  980  982  997  999 1001 1016 1018 1020 1033 
1035 1039 1047 1049 1051 1054 1056 1058 1070 1072 1074 1084 1086 1088 1101 
1103 1105 1125 1127 1129 1142 1144 1146 1153 1155 1159 1167 1169 1171 1188 
1190 1192 1208 1210 1212 1228 1230 1232 1238 1240 1242 1259 1261 1263 1279 
1281 1285 1293 1295 1297 1307 1309 1311 1317 1319 1321 1328 1330 1332 1339 
1341 1343 1360 1362 1366 1374 1376 1378 1384 1386 1388 1401 1403 1405 1420 
1422 1424 1430 1432 1434 1442 1444 1446 1459 1461 1463 1478 1480 1482 1489 
1491 1493 1496 1498 1500 1506 1508 1510 1525 1527 1529 1532 1534 1536 1543 
1545 1547 1562 1564 1566 1569 1571 1573 1589 1591 1593 1600 1602 1604 1624 
1626 1628 1634 1636 1638 1644 1646 1648 1655 1657 1661 1669 1671 1673 1679 
1681 1683 1690 1692 1694 1704 1706 1708 1719 1721 1723 1738 1740 1742 1753 
1755 1757 1767 1769 1771 1783 1785 1787 1800 1802 1804 1817 1819 1821 1829 
1831 1833 1853 1855 1857 1872 1874 1876 1879 1881 1883 1901 1903 1905 1918 
1920 1922 1937 1939 1941 1952 1954 1956 1971 1973 1977 1985 1987 1989 2007 
2009 2011 2017 2019 2021 2037 2039 2041 2056 2058 2060 2070 2072 2074 2085 
2087 2089 2107 2109 2111 2117 2119 2121 2124 2126 2128 2139 2141 2143 2146 
2148 2150 2153 2155 2157 2160 2162 2164 2176 2178 2180 2195 2197 2199 2212 
2214 2216 2219 2221 2223 2230 2232 2234 2240 2242 2244 2251 2253 2255 2266 
2268 2270 2276 2278 2280 2290 2292 2294 2309 2311 2313 2325 2327 2329 2335 
2337 2339 2354 2356 2358 2373 2375 2377 2383 2385 2387 2393 2395 2397 2417 
2419 2421 2431 2433 2435 2453 2455 2457 2469 2471 2473 2488 2490 2492 2505 
2507 2509 2529 2531 2533 2548 2550 2552 2565 2567 2569 2575 2577 2579 2585 
2587 2589 2596 2598 2602 2610 2612 2614 2625 2627 2629 2644 2646 2648 2658 
2660 2662 2675 2677 2679 2685 2687 2689 2695 2697 2699 2714 2716 2718 2731 
2733 2735 2746 2748 2750 2768 2770 2772 2787 2789 2791 2803 2805 2807 2813 
2815 2817 2834 2836 2838 2845 2847 2849 2856 2858 2860 2868 2870 2872 2885 
2887 2889 2895 2897 2899 2912 2914 2916 2923 2925 2927 2934 2936 2938 2950 
2952 2954 2965 2967 2969 2989 2991 2993 2999 3001 3003 3006 3008 3010 3025 
3027 3029 3044 3046 3048 3051 3053 3055 3058 3060 3062 3074 3076 3078 3096 
3098 3100 3115 3117 3119 3137 3139 3141 3147 3149 3151 3166 3168 3172 3180 
3182 3184 3191 3193 3195 3203 3205 3207 3210 3212 3214 3224 3226 3228 3244 
3246 3248 3254 3256 3258 3271 3273 3275 3295 3297 3299 3305 3307 3309 3316 
3318 3320 3326 3328 3330 3345 3347 3349 3362 3364 3366 3377 3379 3381 3387 
3389 3391 3406 3408 3410 3421 3423 3425 3445 3447 3449 3457 3459 3461 3479 
3481 3483 3489 3491 3493 3499 3501 3503 3506 3508 3510 3525 3527 3529 3544 
3546 3550 3558 3560 3562 3578 3580 3582 3598 3600 3602 3615 3617 3619 3631 
3633 3635 3641 3643 3645 3655 3657 3659 3674 3676 3678 3681 3683 3685 3695 
3697 3699 3709 3711 3713 3723 3725 3727 3734 3736 3738 3745 3747 3749 3756 
3758 3760 3776 3778 3780 3788 3790 3792 3802 3804 3806 3821 3823 3825 3840 
3842 3844 3855 3857 3859 3871 3873 3875 3878 3880 3884 3892 3894 3896 3911 
3913 3915 3922 3924 3926 3936 3938 3940 3958 3960 3962 3973 3975 3977 3985 
3987 3989 4004 4006 4008 4028 4030 4032 4047 4049 4051 4064 4066 4068 4080 
4082 4084 4092 4094 4096 4102 4104 4106 4112 4114 4116 4133 4135 4137 4143 
4145 4147 4150 4152 4154 4161 4163 4165 4171 4173 4175 4191 4193 4195 4210 
4212 4214 4221 4223 4227 4235 4237 4239 4250 4252 4254 4270 4272 4274 4294 
4296 4298 4311 4313 4315 4330 4332 4334 4349 4351 4353 4363 4365 4367 4370 
4372 4374 4386 4388 4390 4401 4403 4405 4421 4423 4425 4431 4433 4435 4443 
4445 4447 4454 4456 4458 4474 4476 4478 4488 4490 4492 4508 4510 4512 4522 
4524 4528 4536 4538 4540 4553 4555 4557 4575 4577 4579 4599 4601 4603 4618 
4620 4622 4637 4639 4641 4653 4655 4657 4667 4669 4671 4687 4689 4691 4699 
4701 4703 4710 4712 4714 4721 4723 4725 4731 4733 4735 4748 4750 4752 4772 
4774 4776 4788 4790 4792 4810 4812 4814 4832 4834 4836 4856 4858 4860 4870 
4872 4874 4882 4884 4886 4901 4903 4905 4915 4917 4919 4922 4924 4926 4932 
4934 4936 4952 4954 4956 4976 4978 4980 4995 4997 4999 5007 5009 5013 5021 
5023 5025 5035 5037 5039 5056 5058 5060 5075 5077 5079 5097 5099 5101 5114 
5116 5118 5125 5127 5129 5142 5144 5146 5159 5161 5163 5171 5173 5175 5182 
5184 5186 5189 5191 5193 5208 5210 5212 5227 5229 5231 5241 5243 5245 5253 
5255 5257 5274 5276 5278 5298 5300 5302 5315 5317 5319 5339 5341 5343 5356 
5358 5360 5375 5377 5381 5389 5391 5393 5408 5410 5412 5415 5417 5419 5439 
5441 5443 5463 5465 5467 5483 5485 5487 5507 5509 5511 5518 5520 5522 5537 
5539 5541 5559 5561 5563 5576 5578 5580 5600 5602 5604 5620 5622 5624 5636 
5638 5640 5656 5658 5660 5680 5682 5684 5697 5699 5701 5718 5720 5722 5725 
5727 5729 5741 5743 5745 5763 5765 5767 5770 5772 5774 5789 5791 5793 5806 
5808 5810 5816 5818 5820 5837 5839 5841 5856 5858 5860 5880 5882 5884 5902 
5904 5906 5919 5921 5923 5935 5937 5939 5952 5954 5956 5971 5973 5975 5982 
5984 5986 5999 6001 6003 6014 6016 6018 6034 6036 6038 6049 6051 6053 6060 
6062 6064 6079 6081 6083 6095 6097 6099 6119 6121 6123 6136 6138 6140 6148 
6150 6154 6162 6164 6166 6186 6188 6190 6206 6208 6210 6221 6223 6225 6240 
6242 6244 6251 6253 6255 6267 6269 6271 6282 6284 6286 6298 6300 6302 6317 
6319 6321 6336 6338 6340 6343 6345 6347 6362 6364 6366 6378 6380 6382 6389 
6391 6393 6409 6411 6413 6433 6435 6437 6452 6454 6456 6474 6476 6478 6481 
6483 6485 6492 6494 6496 6506 6508 6510 6528 6530 6532 6544 6546 6548 6558 
6560 6562 6573 6575 6577 6583 6585 6587 6602 6604 6606 6621 6623 6625 6638 
6640 6642 6662 6664 6666 6681 6683 6685 6695 6697 6699 6706 6708 6710 6716 
6718 6720 6738 6740 6742 6760 6762 6764 6779 6781 6783 6796 6798 6800 6815 
6817 6819 6831 6833 6837 6845 6847 6849 6856 6858 6860 6873 6875 6877 6892 
6894 6896 6916 6918 6920 6928 6930 6932 6950 6952 6954 6970 6972 6974 6986 
6988 6990 7005 7007 7009 7029 7031 7033 7049 7051 7053 7059 7061 7063 7078 
7080 7082 7089 7091 7093 7100 7102 7104 7124 7126 7128 7138 7140 7142 7154 
7156 7158 7169 7171 7173 7180 7182 7184 7190 7192 7194 7207 7209 7211 7223 
7225 7227 7240 7242 7244 7264 7266 7268 7274 7276 7278 7298 7300 7302 7313 
7315 7317 7330 7332 7334 7349 7351 7353 7371 7373 7375 7386 7388 7390 7405 
7407 7409 7415 7417 7419 7425 7427 7429 7437 7439 7441 7453 7455 7457 7472 
7474 7476 7496 7498 7500 7506 7508 7510 7521 7523 7525 7545 7547 7549 7560 

[ ChainB_backbone ]
7563 7567 7580 7582 7584 7594 7596 7598 7604 7606 7608 7615 7617 7619 7630 
7632 7634 7650 7652 7654 7674 7676 7678 7698 7700 7702 7722 7724 7726 7729 
7731 7733 7751 7753 7755 7766 7768 7770 7783 7785 7787 7799 7801 7803 7811 
7813 7815 7832 7834 7836 7849 7851 7853 7859 7861 7863 7873 7875 7877 7894 
7896 7898 7911 7913 7915 7926 7928 7930 7933 7935 7937 7952 7954 7956 7967 
7969 7971 7974 7976 7978 7998 8000 8002 8015 8017 8019 8031 8033 8035 8052 
8054 8058 8066 8068 8070 8078 8080 8082 8094 8096 8098 8109 8111 8115 8123 
8125 8127 8130 8132 8134 8151 8153 8155 8170 8172 8174 8194 8196 8200 8208 
8210 8212 8227 8229 8231 8246 8248 8252 8260 8262 8264 8270 8272 8274 8280 
8282 8284 8290 8292 8296 8304 8306 8308 8321 8323 8325 8336 8338 8342 8350 
8352 8354 8362 8364 8366 8376 8378 8380 8396 8398 8400 8411 8413 8415 8423 
8425 8427 8442 8444 8446 8461 8463 8465 8475 8477 8479 8487 8489 8491 8503 
8505 8507 8518 8520 8522 8540 8542 8544 8559 8561 8563 8578 8580 8582 8595 
8597 8601 8609 8611 8613 8616 8618 8620 8632 8634 8636 8646 8648 8650 8663 
8665 8667 8687 8689 8691 8704 8706 8708 8715 8717 8721 8729 8731 8733 8750 
8752 8754 8770 8772 8774 8790 8792 8794 8800 8802 8804 8821 8823 8825 8841 
8843 8847 8855 8857 8859 8869 8871 8873 8879 8881 8883 8890 8892 8894 8901 
8903 8905 8922 8924 8928 8936 8938 8940 8946 8948 8950 8963 8965 8967 8982 
8984 8986 8992 8994 8996 9004 9006 9008 9021 9023 9025 9040 9042 9044 9051 
9053 9055 9058 9060 9062 9068 9070 9072 9087 9089 9091 9094 9096 9098 9105 
9107 9109 9124 9126 9128 9131 9133 9135 9151 9153 9155 9162 9164 9166 9186 
9188 9190 9196 9198 9200 9206 9208 9210 9217 9219 9223 9231 9233 9235 9241 
9243 9245 9252 9254 9256 9266 9268 9270 9281 9283 9285 9300 9302 9304 9315 
9317 9319 9329 9331 9333 9345 9347 9349 9362 9364 9366 9379 9381 9383 9391 
9393 9395 9415 9417 9419 9434 9436 9438 9441 9443 9445 9463 9465 9467 9480 
9482 9484 9499 9501 9503 9514 9516 9518 9533 9535 9539 9547 9549 9551 9569 
9571 9573 9579 9581 9583 9599 9601 9603 9618 9620 9622 9632 9634 9636 9647 
9649 9651 9669 9671 9673 9679 9681 9683 9686 9688 9690 9701 9703 9705 9708 
9710 9712 9715 9717 9719 9722 9724 9726 9738 9740 9742 9757 9759 9761 9774 
9776 9778 9781 9783 9785 9792 9794 9796 9802 9804 9806 9813 9815 9817 9828 
9830 9832 9838 9840 9842 9852 9854 9856 9871 9873 9875 9887 9889 9891 9897 
9899 9901 9916 9918 9920 9935 9937 9939 9945 9947 9949 9955 9957 9959 9979 
9981 9983 9993 9995 9997 10015 10017 10019 10031 10033 10035 10050 10052 10054 10067 
10069 10071 10091 10093 10095 10110 10112 10114 10127 10129 10131 10137 10139 10141 10147 
10149 10151 10158 10160 10164 10172 10174 10176 10187 10189 10191 10206 10208 10210 10220 
10222 10224 10237 10239 10241 10247 10249 10251 10257 10259 10261 10276 10278 10280 10293 
10295 10297 10308 10310 10312 10330 10332 10334 10349 10351 10353 10365 10367 10369 10375 
10377 10379 10396 10398 10400 10407 10409 10411 10418 10420 10422 10430 10432 10434 10447 
10449 10451 10457 10459 10461 10474 10476 10478 10485 10487 10489 10496 10498 10500 10512 
10514 10516 10527 10529 10531 10551 10553 10555 10561 10563 10565 10568 10570 10572 10587 
10589 10591 10606 10608 10610 10613 10615 10617 10620 10622 10624 10636 10638 10640 10658 
10660 10662 10677 10679 10681 10699 10701 10703 10709 10711 10713 10728 10730 10734 10742 
10744 10746 10753 10755 10757 10765 10767 10769 10772 10774 10776 10786 10788 10790 10806 
10808 10810 10816 10818 10820 10833 10835 10837 10857 10859 10861 10867 10869 10871 10878 
10880 10882 10888 10890 10892 10907 10909 10911 10924 10926 10928 10939 10941 10943 10949 
10951 10953 10968 10970 10972 10983 10985 10987 11007 11009 11011 11019 11021 11023 11041 
11043 11045 11051 11053 11055 11061 11063 11065 11068 11070 11072 11087 11089 11091 11106 
11108 11112 11120 11122 11124 11140 11142 11144 11160 11162 11164 11177 11179 11181 11193 
11195 11197 11203 11205 11207 11217 11219 11221 11236 11238 11240 11243 11245 11247 11257 
11259 11261 11271 11273 11275 11285 11287 11289 11296 11298 11300 11307 11309 11311 11318 
11320 11322 11338 11340 11342 11350 11352 11354 11364 11366 11368 11383 11385 11387 11402 
11404 11406 11417 11419 11421 11433 11435 11437 11440 11442 11446 11454 11456 11458 11473 
11475 11477 11484 11486 11488 11498 11500 11502 11520 11522 11524 11535 11537 11539 11547 
11549 11551 11566 11568 11570 11590 11592 11594 11609 11611 11613 11626 11628 11630 11642 
11644 11646 11654 11656 11658 11664 11666 11668 11674 11676 11678 11695 11697 11699 11705 
11707 11709 11712 11714 11716 11723 11725 11727 11733 11735 11737 11753 11755 11757 11772 
11774 11776 11783 11785 11789 11797 11799 11801 11812 11814 11816 11832 11834 11836 11856 
11858 11860 11873 11875 11877 11892 11894 11896 11911 11913 11915 11925 11927 11929 11932 
11934 11936 11948 11950 11952 11963 11965 11967 11983 11985 11987 11993 11995 11997 12005 
12007 12009 12016 12018 12020 12036 12038 12040 12050 12052 12054 12070 12072 12074 12084 
12086 12090 12098 12100 12102 12115 12117 12119 12137 12139 12141 12161 12163 12165 12180 
12182 12184 12199 12201 12203 12215 12217 12219 12229 12231 12233 12249 12251 12253 12261 
12263 12265 12272 12274 12276 12283 12285 12287 12293 12295 12297 12310 12312 12314 12334 
12336 12338 12350 12352 12354 12372 12374 12376 12394 12396 12398 12418 12420 12422 12432 
12434 12436 12444 12446 12448 12463 12465 12467 12477 12479 12481 12484 12486 12488 12494 
12496 12498 12514 12516 12518 12538 12540 12542 12557 12559 12561 12569 12571 12575 12583 
12585 12587 12597 12599 12601 12618 12620 12622 12637 12639 12641 12659 12661 12663 12676 
12678 12680 12687 12689 12691 12704 12706 12708 12721 12723 12725 12733 12735 12737 12744 
12746 12748 12751 12753 12755 12770 12772 12774 12789 12791 12793 12803 12805 12807 12815 
12817 12819 12836 12838 12840 12860 12862 12864 12877 12879 12881 12901 12903 12905 12918 
12920 12922 12937 12939 12943 12951 12953 12955 12970 12972 12974 12977 12979 12981 13001 
13003 13005 13025 13027 13029 13045 13047 13049 13069 13071 13073 13080 13082 13084 13099 
13101 13103 13121 13123 13125 13138 13140 13142 13162 13164 13166 13182 13184 13186 13198 
13200 13202 13218 13220 13222 13242 13244 13246 13259 13261 13263 13280 13282 13284 13287 
13289 13291 13303 13305 13307 13325 13327 13329 13332 13334 13336 13351 13353 13355 13368 
13370 13372 13378 13380 13382 13399 13401 13403 13418 13420 13422 13442 13444 13446 13464 
13466 13468 13481 13483 13485 13497 13499 13501 13514 13516 13518 13533 13535 13537 13544 
13546 13548 13561 13563 13565 13576 13578 13580 13596 13598 13600 13611 13613 13615 13622 
13624 13626 13641 13643 13645 13657 13659 13661 13681 13683 13685 13698 13700 13702 13710 
13712 13716 13724 13726 13728 13748 13750 13752 13768 13770 13772 13783 13785 13787 13802 
13804 13806 13813 13815 13817 13829 13831 13833 13844 13846 13848 13860 13862 13864 13879 
13881 13883 13898 13900 13902 13905 13907 13909 13924 13926 13928 13940 13942 13944 13951 
13953 13955 13971 13973 13975 13995 13997 13999 14014 14016 14018 14036 14038 14040 14043 
14045 14047 14054 14056 14058 14068 14070 14072 14090 14092 14094 14106 14108 14110 14120 
14122 14124 14135 14137 14139 14145 14147 14149 14164 14166 14168 14183 14185 14187 14200 
14202 14204 14224 14226 14228 14243 14245 14247 14257 14259 14261 14268 14270 14272 14278 
14280 14282 14300 14302 14304 14322 14324 14326 14341 14343 14345 14358 14360 14362 14377 
14379 14381 14393 14395 14399 14407 14409 14411 14418 14420 14422 14435 14437 14439 14454 
14456 14458 14478 14480 14482 14490 14492 14494 14512 14514 14516 14532 14534 14536 14548 
14550 14552 14567 14569 14571 14591 14593 14595 14611 14613 14615 14621 14623 14625 14640 
14642 14644 14651 14653 14655 14662 14664 14666 14686 14688 14690 14700 14702 14704 14716 
14718 14720 14731 14733 14735 14742 14744 14746 14752 14754 14756 14769 14771 14773 14785 
14787 14789 14802 14804 14806 14826 14828 14830 14836 14838 14840 14860 14862 14864 14875 
14877 14879 14892 14894 14896 14911 14913 14915 14933 14935 14937 14948 14950 14952 14967 
14969 14971 14977 14979 14981 14987 14989 14991 14999 15001 15003 15015 15017 15019 15034 
15036 15038 15058 15060 15062 15068 15070 15072 15083 15085 15087 15107 15109 15111 15122 

[ resnr_303 ]
4555 4556 4557 4558 4559 4560 4561 4562 4563 4564 4565 4566 4567 4568 4569 
4570 4571 4572 4573 4574 4575 4576 12117 12118 12119 12120 12121 12122 12123 12124 
12125 12126 12127 12128 12129 12130 12131 12132 12133 12134 12135 12136 12137 12138 
