[ Backbone_fit ]
   1    5   18   20   22   32   34   36   42   44   46   53   55   57   68 
  70   72   88   90   92  112  114  116  136  138  140  160  162  164  167 
 169  171  189  191  193  204  206  208  221  223  225  237  239  241  249 
 251  253  270  272  274  287  289  291  297  299  301  311  313  315  332 
 334  336  349  351  353  364  366  368  371  373  375  390  392  394  405 
 407  409  412  414  416  436  438  440  453  455  457  469  471  473  490 
 492  502  504  506  508  516  518  520  532  534  536  547  549  559  561 
 563  565  568  570  572  589  591  593  608  610  612  632  634  644  646 
 648  650  665  667  669  684  686  696  698  700  702  708  710  712  718 
 720  722  728  730  740  742  744  746  759  761  763  774  776  786  788 
 790  792  800  802  804  814  816  818  834  836  838  849  851  853  861 
 863  865  880  882  884  899  901  903  913  915  917  925  927  929  941 
 943  945  956  958  960  978  980  982  997  999 1001 1016 1018 1020 1033 
1035 1045 1047 1049 1051 1054 1056 1058 1070 1072 1074 1084 1086 1088 1101 
1103 1105 1125 1127 1129 1142 1144 1146 1153 1155 1165 1167 1169 1171 1188 
1190 1192 1208 1210 1212 1228 1230 1232 1238 1240 1242 1259 1261 1263 1279 
1281 1291 1293 1295 1297 1307 1309 1311 1317 1319 1321 1328 1330 1332 1339 
1341 1343 1360 1362 1372 1374 1376 1378 1384 1386 1388 1401 1403 1405 1420 
1422 1424 1430 1432 1434 1442 1444 1446 1459 1461 1463 1478 1480 1482 1489 
1491 1493 1496 1498 1500 1506 1508 1510 1525 1527 1529 1532 1534 1536 1543 
1545 1547 1562 1564 1566 1569 1571 1573 1589 1591 1593 1600 1602 1604 1624 
1626 1628 1634 1636 1638 1644 1646 1648 1655 1657 1667 1669 1671 1673 1679 
1681 1683 1690 1692 1694 1704 1706 1708 1719 1721 1723 1738 1740 1742 1753 
1755 1757 1767 1769 1771 1783 1785 1787 1800 1802 1804 1817 1819 1821 1829 
1831 1833 1853 1855 1857 1872 1874 1876 1879 1881 1883 1901 1903 1905 1918 
1920 1922 1937 1939 1941 1952 1954 1956 1971 1973 1983 1985 1987 1989 2007 
2009 2011 2017 2019 2021 2037 2039 2041 2056 2058 2060 2070 2072 2074 2085 
2087 2089 2107 2109 2111 2117 2119 2121 2124 2126 2128 2139 2141 2143 2146 
2148 2150 2153 2155 2157 2160 2162 2164 2176 2178 2180 2195 2197 2199 2212 
2214 2216 2219 2221 2223 2230 2232 2234 2240 2242 2244 2251 2253 2255 2266 
2268 2270 2276 2278 2280 2290 2292 2294 2309 2311 2313 2325 2327 2329 2335 
2337 2339 2354 2356 2358 2373 2375 2377 2383 2385 2387 2393 2395 2397 2417 
2419 2421 2431 2433 2435 2453 2455 2457 2469 2471 2473 2488 2490 2492 2505 
2507 2509 2529 2531 2533 2548 2550 2552 2565 2567 2569 2575 2577 2579 2585 
2587 2589 2596 2598 2608 2610 2612 2614 2625 2627 2629 2644 2646 2648 2658 
2660 2662 2675 2677 2679 2685 2687 2689 2695 2697 2699 2714 2716 2718 2731 
2733 2735 2746 2748 2750 2768 2770 2772 2787 2789 2791 2803 2805 2807 2813 
2815 2817 2834 2836 2838 2845 2847 2849 2856 2858 2860 2868 2870 2872 2885 
2887 2889 2895 2897 2899 2912 2914 2916 2923 2925 2927 2934 2936 2938 2950 
2952 2954 2965 2967 2969 2989 2991 2993 2999 3001 3003 3006 3008 3010 3025 
3027 3029 3044 3046 3048 3051 3053 3055 3058 3060 3062 3074 3076 3078 3096 
3098 3100 3115 3117 3119 3137 3139 3141 3147 3149 3151 3166 3168 3178 3180 
3182 3184 3191 3193 3195 3203 3205 3207 3210 3212 3214 3224 3226 3228 3244 
3246 3248 3254 3256 3258 3271 3273 3275 3295 3297 3299 3305 3307 3309 3316 
3318 3320 3326 3328 3330 3345 3347 3349 3362 3364 3366 3377 3379 3381 3387 
3389 3391 3406 3408 3410 3421 3423 3425 3445 3447 3449 3457 3459 3461 3479 
3481 3483 3489 3491 3493 3499 3501 3503 3506 3508 3510 3525 3527 3529 3544 
3546 3556 3558 3560 3562 3578 3580 3582 3598 3600 3602 3615 3617 3619 3631 
3633 3635 3641 3643 3645 3655 3657 3659 3674 3676 3678 3681 3683 3685 3695 
3697 3699 3709 3711 3713 3723 3725 3727 3734 3736 3738 3745 3747 3749 3756 
3758 3760 3776 3778 3780 3788 3790 3792 3802 3804 3806 3821 3823 3825 3840 
3842 3844 3855 3857 3859 3871 3873 3875 3878 3880 3890 3892 3894 3896 3911 
3913 3915 3922 3924 3926 3936 3938 3940 3958 3960 3962 3973 3975 3977 3985 
3987 3989 4004 4006 4008 4028 4030 4032 4047 4049 4051 4064 4066 4068 4080 
4082 4084 4092 4094 4096 4102 4104 4106 4112 4114 4116 4133 4135 4137 4143 
4145 4147 4150 4152 4154 4161 4163 4165 4171 4173 4175 4191 4193 4195 4210 
4212 4214 4221 4223 4233 4235 4237 4239 4250 4252 4254 4270 4272 4274 4294 
4296 4298 4311 4313 4315 4330 4332 4334 4349 4351 4353 4363 4365 4367 4370 
4372 4374 4386 4388 4390 4401 4403 4405 4421 4423 4425 4431 4433 4435 4443 
4445 4447 4454 4456 4458 4474 4476 4478 4488 4490 4492 4508 4510 4512 4522 
4524 4534 4536 4538 4540 4553 4598 4600 4620 4622 4624 4639 4641 4643 4658 
4660 4662 4674 4676 4678 4688 4690 4692 4708 4710 4712 4720 4722 4724 4731 
4733 4735 4742 4744 4746 4752 4754 4756 4769 4771 4773 4793 4795 4797 4809 
4811 4813 4831 4833 4835 4853 4855 4857 4877 4879 4881 4891 4893 4895 4903 
4905 4907 4922 4924 4926 4936 4938 4940 4943 4945 4947 4953 4955 4957 4973 
4975 4977 4997 4999 5001 5016 5018 5020 5028 5030 5040 5042 5044 5046 5056 
5058 5060 5077 5079 5081 5096 5098 5100 5118 5120 5122 5135 5137 5139 5146 
5148 5150 5163 5165 5167 5180 5182 5184 5192 5194 5196 5203 5205 5207 5210 
5212 5214 5229 5231 5233 5248 5250 5252 5262 5264 5266 5274 5276 5278 5295 
5297 5299 5319 5321 5323 5336 5338 5340 5360 5362 5364 5377 5379 5381 5396 
5398 5408 5410 5412 5414 5429 5431 5433 5436 5438 5440 5460 5462 5464 5484 
5486 5488 5504 5506 5508 5528 5530 5532 5539 5541 5543 5558 5560 5562 5580 
5582 5584 5597 5599 5601 5621 5623 5625 5641 5643 5645 5657 5659 5661 5677 
5679 5681 5701 5703 5705 5718 5720 5722 5739 5741 5743 5746 5748 5750 5762 
5764 5766 5784 5786 5788 5791 5793 5795 5810 5812 5814 5827 5829 5831 5837 
5839 5841 5858 5860 5862 5877 5879 5881 5901 5903 5905 5923 5925 5927 5940 
5942 5944 5956 5958 5960 5973 5975 5977 5992 5994 5996 6003 6005 6007 6020 
6022 6024 6035 6037 6039 6055 6057 6059 6070 6072 6074 6081 6083 6085 6100 
6102 6104 6116 6118 6120 6140 6142 6144 6157 6159 6161 6169 6171 6181 6183 
6185 6187 6207 6209 6211 6227 6229 6231 6242 6244 6246 6261 6263 6265 6272 
6274 6276 6288 6290 6292 6303 6305 6307 6319 6321 6323 6338 6340 6342 6357 
6359 6361 6364 6366 6368 6383 6385 6387 6399 6401 6403 6410 6412 6414 6430 
6432 6434 6454 6456 6458 6473 6475 6477 6495 6497 6499 6502 6504 6506 6513 
6515 6517 6527 6529 6531 6549 6551 6553 6565 6567 6569 6579 6581 6583 6594 
6596 6598 6604 6606 6608 6623 6625 6627 6642 6644 6646 6659 6661 6663 6683 
6685 6687 6702 6704 6706 6716 6718 6720 6727 6729 6731 6737 6739 6741 6759 
6761 6763 6781 6783 6785 6800 6802 6804 6817 6819 6821 6836 6838 6840 6852 
6854 6864 6866 6868 6870 6877 6879 6881 6894 6896 6898 6913 6915 6917 6937 
6939 6941 6949 6951 6953 6971 6973 6975 6991 6993 6995 7007 7009 7011 7026 
7028 7030 7050 7052 7054 7070 7072 7074 7080 7082 7084 7099 7101 7103 7110 
7112 7114 7121 7123 7125 7145 7147 7149 7159 7161 7163 7175 7177 7179 7190 
7192 7194 7201 7203 7205 7211 7213 7215 7228 7230 7232 7244 7246 7248 7261 
7263 7265 7285 7287 7289 7295 7297 7299 7319 7321 7323 7334 7336 7338 7351 
7353 7355 7370 7372 7374 7392 7394 7396 7407 7409 7411 7426 7428 7430 7436 
7438 7440 7446 7448 7450 7458 7460 7462 7474 7476 7478 7493 7495 7497 7517 
7519 7521 7527 7529 7531 7542 7544 7546 7566 7568 7570 7581 7584 7588 7601 
7603 7605 7615 7617 7619 7625 7627 7629 7636 7638 7640 7651 7653 7655 7671 
7673 7675 7695 7697 7699 7719 7721 7723 7743 7745 7747 7750 7752 7754 7772 
7774 7776 7787 7789 7791 7804 7806 7808 7820 7822 7824 7832 7834 7836 7853 
7855 7857 7870 7872 7874 7880 7882 7884 7894 7896 7898 7915 7917 7919 7932 
7934 7936 7947 7949 7951 7954 7956 7958 7973 7975 7977 7988 7990 7992 7995 
7997 7999 8019 8021 8023 8036 8038 8040 8052 8054 8056 8073 8075 8085 8087 
8089 8091 8099 8101 8103 8115 8117 8119 8130 8132 8142 8144 8146 8148 8151 
8153 8155 8172 8174 8176 8191 8193 8195 8215 8217 8227 8229 8231 8233 8248 
8250 8252 8267 8269 8279 8281 8283 8285 8291 8293 8295 8301 8303 8305 8311 
8313 8323 8325 8327 8329 8342 8344 8346 8357 8359 8369 8371 8373 8375 8383 
8385 8387 8397 8399 8401 8417 8419 8421 8432 8434 8436 8444 8446 8448 8463 
8465 8467 8482 8484 8486 8496 8498 8500 8508 8510 8512 8524 8526 8528 8539 
8541 8543 8561 8563 8565 8580 8582 8584 8599 8601 8603 8616 8618 8628 8630 
8632 8634 8637 8639 8641 8653 8655 8657 8667 8669 8671 8684 8686 8688 8708 
8710 8712 8725 8727 8729 8736 8738 8748 8750 8752 8754 8771 8773 8775 8791 
8793 8795 8811 8813 8815 8821 8823 8825 8842 8844 8846 8862 8864 8874 8876 
8878 8880 8890 8892 8894 8900 8902 8904 8911 8913 8915 8922 8924 8926 8943 
8945 8955 8957 8959 8961 8967 8969 8971 8984 8986 8988 9003 9005 9007 9013 
9015 9017 9025 9027 9029 9042 9044 9046 9061 9063 9065 9072 9074 9076 9079 
9081 9083 9089 9091 9093 9108 9110 9112 9115 9117 9119 9126 9128 9130 9145 
9147 9149 9152 9154 9156 9172 9174 9176 9183 9185 9187 9207 9209 9211 9217 
9219 9221 9227 9229 9231 9238 9240 9250 9252 9254 9256 9262 9264 9266 9273 
9275 9277 9287 9289 9291 9302 9304 9306 9321 9323 9325 9336 9338 9340 9350 
9352 9354 9366 9368 9370 9383 9385 9387 9400 9402 9404 9412 9414 9416 9436 
9438 9440 9455 9457 9459 9462 9464 9466 9484 9486 9488 9501 9503 9505 9520 
9522 9524 9535 9537 9539 9554 9556 9566 9568 9570 9572 9590 9592 9594 9600 
9602 9604 9620 9622 9624 9639 9641 9643 9653 9655 9657 9668 9670 9672 9690 
9692 9694 9700 9702 9704 9707 9709 9711 9722 9724 9726 9729 9731 9733 9736 
9738 9740 9743 9745 9747 9759 9761 9763 9778 9780 9782 9795 9797 9799 9802 
9804 9806 9813 9815 9817 9823 9825 9827 9834 9836 9838 9849 9851 9853 9859 
9861 9863 9873 9875 9877 9892 9894 9896 9908 9910 9912 9918 9920 9922 9937 
9939 9941 9956 9958 9960 9966 9968 9970 9976 9978 9980 10000 10002 10004 10014 
10016 10018 10036 10038 10040 10052 10054 10056 10071 10073 10075 10088 10090 10092 10112 
10114 10116 10131 10133 10135 10148 10150 10152 10158 10160 10162 10168 10170 10172 10179 
10181 10191 10193 10195 10197 10208 10210 10212 10227 10229 10231 10241 10243 10245 10258 
10260 10262 10268 10270 10272 10278 10280 10282 10297 10299 10301 10314 10316 10318 10329 
10331 10333 10351 10353 10355 10370 10372 10374 10386 10388 10390 10396 10398 10400 10417 
10419 10421 10428 10430 10432 10439 10441 10443 10451 10453 10455 10468 10470 10472 10478 
10480 10482 10495 10497 10499 10506 10508 10510 10517 10519 10521 10533 10535 10537 10548 
10550 10552 10572 10574 10576 10582 10584 10586 10589 10591 10593 10608 10610 10612 10627 
10629 10631 10634 10636 10638 10641 10643 10645 10657 10659 10661 10679 10681 10683 10698 
10700 10702 10720 10722 10724 10730 10732 10734 10749 10751 10761 10763 10765 10767 10774 
10776 10778 10786 10788 10790 10793 10795 10797 10807 10809 10811 10827 10829 10831 10837 
10839 10841 10854 10856 10858 10878 10880 10882 10888 10890 10892 10899 10901 10903 10909 
10911 10913 10928 10930 10932 10945 10947 10949 10960 10962 10964 10970 10972 10974 10989 
10991 10993 11004 11006 11008 11028 11030 11032 11040 11042 11044 11062 11064 11066 11072 
11074 11076 11082 11084 11086 11089 11091 11093 11108 11110 11112 11127 11129 11139 11141 
11143 11145 11161 11163 11165 11181 11183 11185 11198 11200 11202 11214 11216 11218 11224 
11226 11228 11238 11240 11242 11257 11259 11261 11264 11266 11268 11278 11280 11282 11292 
11294 11296 11306 11308 11310 11317 11319 11321 11328 11330 11332 11339 11341 11343 11359 
11361 11363 11371 11373 11375 11385 11387 11389 11404 11406 11408 11423 11425 11427 11438 
11440 11442 11454 11456 11458 11461 11463 11473 11475 11477 11479 11494 11496 11498 11505 
11507 11509 11519 11521 11523 11541 11543 11545 11556 11558 11560 11568 11570 11572 11587 
11589 11591 11611 11613 11615 11630 11632 11634 11647 11649 11651 11663 11665 11667 11675 
11677 11679 11685 11687 11689 11695 11697 11699 11716 11718 11720 11726 11728 11730 11733 
11735 11737 11744 11746 11748 11754 11756 11758 11774 11776 11778 11793 11795 11797 11804 
11806 11816 11818 11820 11822 11833 11835 11837 11853 11855 11857 11877 11879 11881 11894 
11896 11898 11913 11915 11917 11932 11934 11936 11946 11948 11950 11953 11955 11957 11969 
11971 11973 11984 11986 11988 12004 12006 12008 12014 12016 12018 12026 12028 12030 12037 
12039 12041 12057 12059 12061 12071 12073 12075 12091 12093 12095 12105 12107 12117 12119 
12121 12123 12136 12181 12183 12203 12205 12207 12222 12224 12226 12241 12243 12245 12257 
12259 12261 12271 12273 12275 12291 12293 12295 12303 12305 12307 12314 12316 12318 12325 
12327 12329 12335 12337 12339 12352 12354 12356 12376 12378 12380 12392 12394 12396 12414 
12416 12418 12436 12438 12440 12460 12462 12464 12474 12476 12478 12486 12488 12490 12505 
12507 12509 12519 12521 12523 12526 12528 12530 12536 12538 12540 12556 12558 12560 12580 
12582 12584 12599 12601 12603 12611 12613 12623 12625 12627 12629 12639 12641 12643 12660 
12662 12664 12679 12681 12683 12701 12703 12705 12718 12720 12722 12729 12731 12733 12746 
12748 12750 12763 12765 12767 12775 12777 12779 12786 12788 12790 12793 12795 12797 12812 
12814 12816 12831 12833 12835 12845 12847 12849 12857 12859 12861 12878 12880 12882 12902 
12904 12906 12919 12921 12923 12943 12945 12947 12960 12962 12964 12979 12981 12991 12993 
12995 12997 13012 13014 13016 13019 13021 13023 13043 13045 13047 13067 13069 13071 13087 
13089 13091 13111 13113 13115 13122 13124 13126 13141 13143 13145 13163 13165 13167 13180 
13182 13184 13204 13206 13208 13224 13226 13228 13240 13242 13244 13260 13262 13264 13284 
13286 13288 13301 13303 13305 13322 13324 13326 13329 13331 13333 13345 13347 13349 13367 
13369 13371 13374 13376 13378 13393 13395 13397 13410 13412 13414 13420 13422 13424 13441 
13443 13445 13460 13462 13464 13484 13486 13488 13506 13508 13510 13523 13525 13527 13539 
13541 13543 13556 13558 13560 13575 13577 13579 13586 13588 13590 13603 13605 13607 13618 
13620 13622 13638 13640 13642 13653 13655 13657 13664 13666 13668 13683 13685 13687 13699 
13701 13703 13723 13725 13727 13740 13742 13744 13752 13754 13764 13766 13768 13770 13790 
13792 13794 13810 13812 13814 13825 13827 13829 13844 13846 13848 13855 13857 13859 13871 
13873 13875 13886 13888 13890 13902 13904 13906 13921 13923 13925 13940 13942 13944 13947 
13949 13951 13966 13968 13970 13982 13984 13986 13993 13995 13997 14013 14015 14017 14037 
14039 14041 14056 14058 14060 14078 14080 14082 14085 14087 14089 14096 14098 14100 14110 
14112 14114 14132 14134 14136 14148 14150 14152 14162 14164 14166 14177 14179 14181 14187 
14189 14191 14206 14208 14210 14225 14227 14229 14242 14244 14246 14266 14268 14270 14285 
14287 14289 14299 14301 14303 14310 14312 14314 14320 14322 14324 14342 14344 14346 14364 
14366 14368 14383 14385 14387 14400 14402 14404 14419 14421 14423 14435 14437 14447 14449 
14451 14453 14460 14462 14464 14477 14479 14481 14496 14498 14500 14520 14522 14524 14532 
14534 14536 14554 14556 14558 14574 14576 14578 14590 14592 14594 14609 14611 14613 14633 
14635 14637 14653 14655 14657 14663 14665 14667 14682 14684 14686 14693 14695 14697 14704 
14706 14708 14728 14730 14732 14742 14744 14746 14758 14760 14762 14773 14775 14777 14784 
14786 14788 14794 14796 14798 14811 14813 14815 14827 14829 14831 14844 14846 14848 14868 
14870 14872 14878 14880 14882 14902 14904 14906 14917 14919 14921 14934 14936 14938 14953 
14955 14957 14975 14977 14979 14990 14992 14994 15009 15011 15013 15019 15021 15023 15029 
15031 15033 15041 15043 15045 15057 15059 15061 15076 15078 15080 15100 15102 15104 15110 
15112 15114 15125 15127 15129 15149 15151 15153 15164 

[ ChainA_backbone ]
   1    5   18   20   22   32   34   36   42   44   46   53   55   57   68 
  70   72   88   90   92  112  114  116  136  138  140  160  162  164  167 
 169  171  189  191  193  204  206  208  221  223  225  237  239  241  249 
 251  253  270  272  274  287  289  291  297  299  301  311  313  315  332 
 334  336  349  351  353  364  366  368  371  373  375  390  392  394  405 
 407  409  412  414  416  436  438  440  453  455  457  469  471  473  490 
 492  502  504  506  508  516  518  520  532  534  536  547  549  559  561 
 563  565  568  570  572  589  591  593  608  610  612  632  634  644  646 
 648  650  665  667  669  684  686  696  698  700  702  708  710  712  718 
 720  722  728  730  740  742  744  746  759  761  763  774  776  786  788 
 790  792  800  802  804  814  816  818  834  836  838  849  851  853  861 
 863  865  880  882  884  899  901  903  913  915  917  925  927  929  941 
 943  945  956  958  960  978  980  982  997  999 1001 1016 1018 1020 1033 
1035 1045 1047 1049 1051 1054 1056 1058 1070 1072 1074 1084 1086 1088 1101 
1103 1105 1125 1127 1129 1142 1144 1146 1153 1155 1165 1167 1169 1171 1188 
1190 1192 1208 1210 1212 1228 1230 1232 1238 1240 1242 1259 1261 1263 1279 
1281 1291 1293 1295 1297 1307 1309 1311 1317 1319 1321 1328 1330 1332 1339 
1341 1343 1360 1362 1372 1374 1376 1378 1384 1386 1388 1401 1403 1405 1420 
1422 1424 1430 1432 1434 1442 1444 1446 1459 1461 1463 1478 1480 1482 1489 
1491 1493 1496 1498 1500 1506 1508 1510 1525 1527 1529 1532 1534 1536 1543 
1545 1547 1562 1564 1566 1569 1571 1573 1589 1591 1593 1600 1602 1604 1624 
1626 1628 1634 1636 1638 1644 1646 1648 1655 1657 1667 1669 1671 1673 1679 
1681 1683 1690 1692 1694 1704 1706 1708 1719 1721 1723 1738 1740 1742 1753 
1755 1757 1767 1769 1771 1783 1785 1787 1800 1802 1804 1817 1819 1821 1829 
1831 1833 1853 1855 1857 1872 1874 1876 1879 1881 1883 1901 1903 1905 1918 
1920 1922 1937 1939 1941 1952 1954 1956 1971 1973 1983 1985 1987 1989 2007 
2009 2011 2017 2019 2021 2037 2039 2041 2056 2058 2060 2070 2072 2074 2085 
2087 2089 2107 2109 2111 2117 2119 2121 2124 2126 2128 2139 2141 2143 2146 
2148 2150 2153 2155 2157 2160 2162 2164 2176 2178 2180 2195 2197 2199 2212 
2214 2216 2219 2221 2223 2230 2232 2234 2240 2242 2244 2251 2253 2255 2266 
2268 2270 2276 2278 2280 2290 2292 2294 2309 2311 2313 2325 2327 2329 2335 
2337 2339 2354 2356 2358 2373 2375 2377 2383 2385 2387 2393 2395 2397 2417 
2419 2421 2431 2433 2435 2453 2455 2457 2469 2471 2473 2488 2490 2492 2505 
2507 2509 2529 2531 2533 2548 2550 2552 2565 2567 2569 2575 2577 2579 2585 
2587 2589 2596 2598 2608 2610 2612 2614 2625 2627 2629 2644 2646 2648 2658 
2660 2662 2675 2677 2679 2685 2687 2689 2695 2697 2699 2714 2716 2718 2731 
2733 2735 2746 2748 2750 2768 2770 2772 2787 2789 2791 2803 2805 2807 2813 
2815 2817 2834 2836 2838 2845 2847 2849 2856 2858 2860 2868 2870 2872 2885 
2887 2889 2895 2897 2899 2912 2914 2916 2923 2925 2927 2934 2936 2938 2950 
2952 2954 2965 2967 2969 2989 2991 2993 2999 3001 3003 3006 3008 3010 3025 
3027 3029 3044 3046 3048 3051 3053 3055 3058 3060 3062 3074 3076 3078 3096 
3098 3100 3115 3117 3119 3137 3139 3141 3147 3149 3151 3166 3168 3178 3180 
3182 3184 3191 3193 3195 3203 3205 3207 3210 3212 3214 3224 3226 3228 3244 
3246 3248 3254 3256 3258 3271 3273 3275 3295 3297 3299 3305 3307 3309 3316 
3318 3320 3326 3328 3330 3345 3347 3349 3362 3364 3366 3377 3379 3381 3387 
3389 3391 3406 3408 3410 3421 3423 3425 3445 3447 3449 3457 3459 3461 3479 
3481 3483 3489 3491 3493 3499 3501 3503 3506 3508 3510 3525 3527 3529 3544 
3546 3556 3558 3560 3562 3578 3580 3582 3598 3600 3602 3615 3617 3619 3631 
3633 3635 3641 3643 3645 3655 3657 3659 3674 3676 3678 3681 3683 3685 3695 
3697 3699 3709 3711 3713 3723 3725 3727 3734 3736 3738 3745 3747 3749 3756 
3758 3760 3776 3778 3780 3788 3790 3792 3802 3804 3806 3821 3823 3825 3840 
3842 3844 3855 3857 3859 3871 3873 3875 3878 3880 3890 3892 3894 3896 3911 
3913 3915 3922 3924 3926 3936 3938 3940 3958 3960 3962 3973 3975 3977 3985 
3987 3989 4004 4006 4008 4028 4030 4032 4047 4049 4051 4064 4066 4068 4080 
4082 4084 4092 4094 4096 4102 4104 4106 4112 4114 4116 4133 4135 4137 4143 
4145 4147 4150 4152 4154 4161 4163 4165 4171 4173 4175 4191 4193 4195 4210 
4212 4214 4221 4223 4233 4235 4237 4239 4250 4252 4254 4270 4272 4274 4294 
4296 4298 4311 4313 4315 4330 4332 4334 4349 4351 4353 4363 4365 4367 4370 
4372 4374 4386 4388 4390 4401 4403 4405 4421 4423 4425 4431 4433 4435 4443 
4445 4447 4454 4456 4458 4474 4476 4478 4488 4490 4492 4508 4510 4512 4522 
4524 4534 4536 4538 4540 4553 4555 4557 4573 4598 4600 4620 4622 4624 4639 
4641 4643 4658 4660 4662 4674 4676 4678 4688 4690 4692 4708 4710 4712 4720 
4722 4724 4731 4733 4735 4742 4744 4746 4752 4754 4756 4769 4771 4773 4793 
4795 4797 4809 4811 4813 4831 4833 4835 4853 4855 4857 4877 4879 4881 4891 
4893 4895 4903 4905 4907 4922 4924 4926 4936 4938 4940 4943 4945 4947 4953 
4955 4957 4973 4975 4977 4997 4999 5001 5016 5018 5020 5028 5030 5040 5042 
5044 5046 5056 5058 5060 5077 5079 5081 5096 5098 5100 5118 5120 5122 5135 
5137 5139 5146 5148 5150 5163 5165 5167 5180 5182 5184 5192 5194 5196 5203 
5205 5207 5210 5212 5214 5229 5231 5233 5248 5250 5252 5262 5264 5266 5274 
5276 5278 5295 5297 5299 5319 5321 5323 5336 5338 5340 5360 5362 5364 5377 
5379 5381 5396 5398 5408 5410 5412 5414 5429 5431 5433 5436 5438 5440 5460 
5462 5464 5484 5486 5488 5504 5506 5508 5528 5530 5532 5539 5541 5543 5558 
5560 5562 5580 5582 5584 5597 5599 5601 5621 5623 5625 5641 5643 5645 5657 
5659 5661 5677 5679 5681 5701 5703 5705 5718 5720 5722 5739 5741 5743 5746 
5748 5750 5762 5764 5766 5784 5786 5788 5791 5793 5795 5810 5812 5814 5827 
5829 5831 5837 5839 5841 5858 5860 5862 5877 5879 5881 5901 5903 5905 5923 
5925 5927 5940 5942 5944 5956 5958 5960 5973 5975 5977 5992 5994 5996 6003 
6005 6007 6020 6022 6024 6035 6037 6039 6055 6057 6059 6070 6072 6074 6081 
6083 6085 6100 6102 6104 6116 6118 6120 6140 6142 6144 6157 6159 6161 6169 
6171 6181 6183 6185 6187 6207 6209 6211 6227 6229 6231 6242 6244 6246 6261 
6263 6265 6272 6274 6276 6288 6290 6292 6303 6305 6307 6319 6321 6323 6338 
6340 6342 6357 6359 6361 6364 6366 6368 6383 6385 6387 6399 6401 6403 6410 
6412 6414 6430 6432 6434 6454 6456 6458 6473 6475 6477 6495 6497 6499 6502 
6504 6506 6513 6515 6517 6527 6529 6531 6549 6551 6553 6565 6567 6569 6579 
6581 6583 6594 6596 6598 6604 6606 6608 6623 6625 6627 6642 6644 6646 6659 
6661 6663 6683 6685 6687 6702 6704 6706 6716 6718 6720 6727 6729 6731 6737 
6739 6741 6759 6761 6763 6781 6783 6785 6800 6802 6804 6817 6819 6821 6836 
6838 6840 6852 6854 6864 6866 6868 6870 6877 6879 6881 6894 6896 6898 6913 
6915 6917 6937 6939 6941 6949 6951 6953 6971 6973 6975 6991 6993 6995 7007 
7009 7011 7026 7028 7030 7050 7052 7054 7070 7072 7074 7080 7082 7084 7099 
7101 7103 7110 7112 7114 7121 7123 7125 7145 7147 7149 7159 7161 7163 7175 
7177 7179 7190 7192 7194 7201 7203 7205 7211 7213 7215 7228 7230 7232 7244 
7246 7248 7261 7263 7265 7285 7287 7289 7295 7297 7299 7319 7321 7323 7334 
7336 7338 7351 7353 7355 7370 7372 7374 7392 7394 7396 7407 7409 7411 7426 
7428 7430 7436 7438 7440 7446 7448 7450 7458 7460 7462 7474 7476 7478 7493 
7495 7497 7517 7519 7521 7527 7529 7531 7542 7544 7546 7566 7568 7570 7581 

[ ChainB_backbone ]
7584 7588 7601 7603 7605 7615 7617 7619 7625 7627 7629 7636 7638 7640 7651 
7653 7655 7671 7673 7675 7695 7697 7699 7719 7721 7723 7743 7745 7747 7750 
7752 7754 7772 7774 7776 7787 7789 7791 7804 7806 7808 7820 7822 7824 7832 
7834 7836 7853 7855 7857 7870 7872 7874 7880 7882 7884 7894 7896 7898 7915 
7917 7919 7932 7934 7936 7947 7949 7951 7954 7956 7958 7973 7975 7977 7988 
7990 7992 7995 7997 7999 8019 8021 8023 8036 8038 8040 8052 8054 8056 8073 
8075 8085 8087 8089 8091 8099 8101 8103 8115 8117 8119 8130 8132 8142 8144 
8146 8148 8151 8153 8155 8172 8174 8176 8191 8193 8195 8215 8217 8227 8229 
8231 8233 8248 8250 8252 8267 8269 8279 8281 8283 8285 8291 8293 8295 8301 
8303 8305 8311 8313 8323 8325 8327 8329 8342 8344 8346 8357 8359 8369 8371 
8373 8375 8383 8385 8387 8397 8399 8401 8417 8419 8421 8432 8434 8436 8444 
8446 8448 8463 8465 8467 8482 8484 8486 8496 8498 8500 8508 8510 8512 8524 
8526 8528 8539 8541 8543 8561 8563 8565 8580 8582 8584 8599 8601 8603 8616 
8618 8628 8630 8632 8634 8637 8639 8641 8653 8655 8657 8667 8669 8671 8684 
8686 8688 8708 8710 8712 8725 8727 8729 8736 8738 8748 8750 8752 8754 8771 
8773 8775 8791 8793 8795 8811 8813 8815 8821 8823 8825 8842 8844 8846 8862 
8864 8874 8876 8878 8880 8890 8892 8894 8900 8902 8904 8911 8913 8915 8922 
8924 8926 8943 8945 8955 8957 8959 8961 8967 8969 8971 8984 8986 8988 9003 
9005 9007 9013 9015 9017 9025 9027 9029 9042 9044 9046 9061 9063 9065 9072 
9074 9076 9079 9081 9083 9089 9091 9093 9108 9110 9112 9115 9117 9119 9126 
9128 9130 9145 9147 9149 9152 9154 9156 9172 9174 9176 9183 9185 9187 9207 
9209 9211 9217 9219 9221 9227 9229 9231 9238 9240 9250 9252 9254 9256 9262 
9264 9266 9273 9275 9277 9287 9289 9291 9302 9304 9306 9321 9323 9325 9336 
9338 9340 9350 9352 9354 9366 9368 9370 9383 9385 9387 9400 9402 9404 9412 
9414 9416 9436 9438 9440 9455 9457 9459 9462 9464 9466 9484 9486 9488 9501 
9503 9505 9520 9522 9524 9535 9537 9539 9554 9556 9566 9568 9570 9572 9590 
9592 9594 9600 9602 9604 9620 9622 9624 9639 9641 9643 9653 9655 9657 9668 
9670 9672 9690 9692 9694 9700 9702 9704 9707 9709 9711 9722 9724 9726 9729 
9731 9733 9736 9738 9740 9743 9745 9747 9759 9761 9763 9778 9780 9782 9795 
9797 9799 9802 9804 9806 9813 9815 9817 9823 9825 9827 9834 9836 9838 9849 
9851 9853 9859 9861 9863 9873 9875 9877 9892 9894 9896 9908 9910 9912 9918 
9920 9922 9937 9939 9941 9956 9958 9960 9966 9968 9970 9976 9978 9980 10000 
10002 10004 10014 10016 10018 10036 10038 10040 10052 10054 10056 10071 10073 10075 10088 
10090 10092 10112 10114 10116 10131 10133 10135 10148 10150 10152 10158 10160 10162 10168 
10170 10172 10179 10181 10191 10193 10195 10197 10208 10210 10212 10227 10229 10231 10241 
10243 10245 10258 10260 10262 10268 10270 10272 10278 10280 10282 10297 10299 10301 10314 
10316 10318 10329 10331 10333 10351 10353 10355 10370 10372 10374 10386 10388 10390 10396 
10398 10400 10417 10419 10421 10428 10430 10432 10439 10441 10443 10451 10453 10455 10468 
10470 10472 10478 10480 10482 10495 10497 10499 10506 10508 10510 10517 10519 10521 10533 
10535 10537 10548 10550 10552 10572 10574 10576 10582 10584 10586 10589 10591 10593 10608 
10610 10612 10627 10629 10631 10634 10636 10638 10641 10643 10645 10657 10659 10661 10679 
10681 10683 10698 10700 10702 10720 10722 10724 10730 10732 10734 10749 10751 10761 10763 
10765 10767 10774 10776 10778 10786 10788 10790 10793 10795 10797 10807 10809 10811 10827 
10829 10831 10837 10839 10841 10854 10856 10858 10878 10880 10882 10888 10890 10892 10899 
10901 10903 10909 10911 10913 10928 10930 10932 10945 10947 10949 10960 10962 10964 10970 
10972 10974 10989 10991 10993 11004 11006 11008 11028 11030 11032 11040 11042 11044 11062 
11064 11066 11072 11074 11076 11082 11084 11086 11089 11091 11093 11108 11110 11112 11127 
11129 11139 11141 11143 11145 11161 11163 11165 11181 11183 11185 11198 11200 11202 11214 
11216 11218 11224 11226 11228 11238 11240 11242 11257 11259 11261 11264 11266 11268 11278 
11280 11282 11292 11294 11296 11306 11308 11310 11317 11319 11321 11328 11330 11332 11339 
11341 11343 11359 11361 11363 11371 11373 11375 11385 11387 11389 11404 11406 11408 11423 
11425 11427 11438 11440 11442 11454 11456 11458 11461 11463 11473 11475 11477 11479 11494 
11496 11498 11505 11507 11509 11519 11521 11523 11541 11543 11545 11556 11558 11560 11568 
11570 11572 11587 11589 11591 11611 11613 11615 11630 11632 11634 11647 11649 11651 11663 
11665 11667 11675 11677 11679 11685 11687 11689 11695 11697 11699 11716 11718 11720 11726 
11728 11730 11733 11735 11737 11744 11746 11748 11754 11756 11758 11774 11776 11778 11793 
11795 11797 11804 11806 11816 11818 11820 11822 11833 11835 11837 11853 11855 11857 11877 
11879 11881 11894 11896 11898 11913 11915 11917 11932 11934 11936 11946 11948 11950 11953 
11955 11957 11969 11971 11973 11984 11986 11988 12004 12006 12008 12014 12016 12018 12026 
12028 12030 12037 12039 12041 12057 12059 12061 12071 12073 12075 12091 12093 12095 12105 
12107 12117 12119 12121 12123 12136 12138 12140 12156 12181 12183 12203 12205 12207 12222 
12224 12226 12241 12243 12245 12257 12259 12261 12271 12273 12275 12291 12293 12295 12303 
12305 12307 12314 12316 12318 12325 12327 12329 12335 12337 12339 12352 12354 12356 12376 
12378 12380 12392 12394 12396 12414 12416 12418 12436 12438 12440 12460 12462 12464 12474 
12476 12478 12486 12488 12490 12505 12507 12509 12519 12521 12523 12526 12528 12530 12536 
12538 12540 12556 12558 12560 12580 12582 12584 12599 12601 12603 12611 12613 12623 12625 
12627 12629 12639 12641 12643 12660 12662 12664 12679 12681 12683 12701 12703 12705 12718 
12720 12722 12729 12731 12733 12746 12748 12750 12763 12765 12767 12775 12777 12779 12786 
12788 12790 12793 12795 12797 12812 12814 12816 12831 12833 12835 12845 12847 12849 12857 
12859 12861 12878 12880 12882 12902 12904 12906 12919 12921 12923 12943 12945 12947 12960 
12962 12964 12979 12981 12991 12993 12995 12997 13012 13014 13016 13019 13021 13023 13043 
13045 13047 13067 13069 13071 13087 13089 13091 13111 13113 13115 13122 13124 13126 13141 
13143 13145 13163 13165 13167 13180 13182 13184 13204 13206 13208 13224 13226 13228 13240 
13242 13244 13260 13262 13264 13284 13286 13288 13301 13303 13305 13322 13324 13326 13329 
13331 13333 13345 13347 13349 13367 13369 13371 13374 13376 13378 13393 13395 13397 13410 
13412 13414 13420 13422 13424 13441 13443 13445 13460 13462 13464 13484 13486 13488 13506 
13508 13510 13523 13525 13527 13539 13541 13543 13556 13558 13560 13575 13577 13579 13586 
13588 13590 13603 13605 13607 13618 13620 13622 13638 13640 13642 13653 13655 13657 13664 
13666 13668 13683 13685 13687 13699 13701 13703 13723 13725 13727 13740 13742 13744 13752 
13754 13764 13766 13768 13770 13790 13792 13794 13810 13812 13814 13825 13827 13829 13844 
13846 13848 13855 13857 13859 13871 13873 13875 13886 13888 13890 13902 13904 13906 13921 
13923 13925 13940 13942 13944 13947 13949 13951 13966 13968 13970 13982 13984 13986 13993 
13995 13997 14013 14015 14017 14037 14039 14041 14056 14058 14060 14078 14080 14082 14085 
14087 14089 14096 14098 14100 14110 14112 14114 14132 14134 14136 14148 14150 14152 14162 
14164 14166 14177 14179 14181 14187 14189 14191 14206 14208 14210 14225 14227 14229 14242 
14244 14246 14266 14268 14270 14285 14287 14289 14299 14301 14303 14310 14312 14314 14320 
14322 14324 14342 14344 14346 14364 14366 14368 14383 14385 14387 14400 14402 14404 14419 
14421 14423 14435 14437 14447 14449 14451 14453 14460 14462 14464 14477 14479 14481 14496 
14498 14500 14520 14522 14524 14532 14534 14536 14554 14556 14558 14574 14576 14578 14590 
14592 14594 14609 14611 14613 14633 14635 14637 14653 14655 14657 14663 14665 14667 14682 
14684 14686 14693 14695 14697 14704 14706 14708 14728 14730 14732 14742 14744 14746 14758 
14760 14762 14773 14775 14777 14784 14786 14788 14794 14796 14798 14811 14813 14815 14827 
14829 14831 14844 14846 14848 14868 14870 14872 14878 14880 14882 14902 14904 14906 14917 
14919 14921 14934 14936 14938 14953 14955 14957 14975 14977 14979 14990 14992 14994 15009 
15011 15013 15019 15021 15023 15029 15031 15033 15041 15043 15045 15057 15059 15061 15076 
15078 15080 15100 15102 15104 15110 15112 15114 15125 15127 15129 15149 15151 15153 15164 

[ resnr_303 ]
4555 4556 4557 4558 4559 4560 4561 4562 4563 4564 4565 4566 4567 4568 4569 
4570 4571 4572 4573 4574 4575 4576 4577 4578 4579 4580 4581 4582 4583 4584 
4585 4586 4587 4588 4589 4590 4591 4592 4593 4594 4595 4596 4597 12138 12139 
12140 12141 12142 12143 12144 12145 12146 12147 12148 12149 12150 12151 12152 12153 12154 
12155 12156 12157 12158 12159 12160 12161 12162 12163 12164 12165 12166 12167 12168 12169 
12170 12171 12172 12173 12174 12175 12176 12177 12178 12179 12180 

[ resname_LYSP ]
4555 4556 4557 4558 4559 4560 4561 4562 4563 4564 4565 4566 4567 4568 4569 
4570 4571 4572 4573 4574 4575 4576 4577 4578 4579 4580 4581 4582 4583 4584 
4585 4586 4587 4588 4589 4590 4591 4592 4593 4594 4595 4596 4597 12138 12139 
12140 12141 12142 12143 12144 12145 12146 12147 12148 12149 12150 12151 12152 12153 12154 
12155 12156 12157 12158 12159 12160 12161 12162 12163 12164 12165 12166 12167 12168 12169 
12170 12171 12172 12173 12174 12175 12176 12177 12178 12179 12180 
